ITEM: TIMESTEP
0
ITEM: NUMBER OF ATOMS
1000
ITEM: BOX BOUNDS pp pp pp
0 74.822
0 74.822
0 74.822
ITEM: ATOMS id type x y z
0 1 70.4636 15.3068 62.9739
1 1 72.755 0.723811 31.7557
2 1 22.7107 7.58443 37.452
3 1 22.1405 21.1089 22.5693
4 1 61.3266 26.1624 66.8186
5 1 13.7897 40.4958 7.058
6 1 30.2691 2.77032 70.2405
7 1 7.3874 70.1199 61.1717
8 1 65.2595 72.1044 39.8541
9 1 45.0715 64.4657 44.6554
10 1 21.2476 65.7713 63.8732
11 1 43.3097 4.66964 28.5098
12 1 4.37318 55.0244 41.9843
13 1 17.6352 66.7756 12.9169
14 1 13.1658 1.62771 24.1224
15 1 37.6005 26.4218 5.44193
16 1 26.3172 24.8197 22.7222
17 1 16.5634 44.7142 55.7415
18 1 41.7939 7.45982 59.1717
19 1 18.5273 60.6469 64.5792
20 1 40.4741 58.2217 59.2248
21 1 20.0439 5.24003 44.9873
22 1 41.1774 47.7803 31.4856
23 1 22.6084 10.9401 57.2143
24 1 36.8724 60.135 3.91578
25 1 17.107 64.3397 54.9889
26 1 71.9056 64.3607 68.1578
27 1 39.1207 45.491 29.4562
28 1 22.304 70.703 7.32673
29 1 9.18063 2.96138 37.332
30 1 48.5471 53.5458 73.2244
31 1 43.0173 69.5741 73.919
32 1 59.0333 41.7222 71.9412
33 1 1.44004 33.4268 62.9435
34 1 63.2012 24.6186 6.2337
35 1 21.1415 73.2987 3.37644
36 1 4.88897 53.954 46.6551
37 1 50.6823 55.8354 23.3587
38 1 53.606 47.4695 24.8516
39 1 53.7317 23.9937 46.5231
40 1 22.7384 45.1973 17.148
41 1 8.7057 36.9808 2.12607
42 1 56.1012 26.8097 43.317
43 1 44.8382 20.3415 47.0093
44 1 26.9303 11.4589 11.6857
45 1 17.3929 58.5499 56.6422
46 1 38.6295 54.454 6.93282
47 1 59.1294 29.865 41.8381
48 1 72.4244 26.2449 29.2997
49 1 28.9164 45.164 73.7951
50 1 50.9207 62.0517 59.072
51 1 30.1995 39.6073 33.6671
52 1 27.6673 41.5818 26.5986
53 1 71.6982 26.9117 52.9203
54 1 71.6202 55.5791 5.88221
55 1 9.22504 58.0693 73.208
56 1 0.148453 8.82042 14.8808
57 1 59.4574 66.2928 59.2747
58 1 52.3147 48.0347 48.6039
59 1 32.0294 15.6159 56.0167
60 1 21.9877 73.6981 23.6299
61 1 71.3229 1.11249 44.6488
62 1 40.7863 41.1549 34.0829
63 1 37.7298 20.8494 58.0542
64 1 22.0246 22.969 65.5902
65 1 42.1714 44.5665 24.476
66 1 34.9388 43.4136 52.5664
67 1 12.1874 8.25022 36.6614
68 1 39.9716 30.4776 39.2492
69 1 40.099 0.709431 74.2982
70 1 50.1882 41.2266 58.7762
71 1 33.9175 0.471532 55.1082
72 1 0.514073 20.7353 30.3134
73 1 62.1398 4.36329 13.2224
74 1 63.1266 30.0377 63.5902
75 1 43.9984 12.4679 23.1695
76 1 39.6616 26.5815 6.25846
77 1 55.7179 1.66231 32.5939
78 1 3.59977 50.6765 13.6873
79 1 70.4718 40.9731 11.3728
80 1 12.0609 27.491 8.08934
81 1 40.9137 72.084 59.7788
82 1 26.7537 3.58083 6.85395
83 1 2.13312 29.9245 46.4309
84 1 32.6183 72.1439 31.2632
85 1 65.6261 22.5257 55.3054
86 1 32.097 36.2541 47.0853
87 1 44.9249 31.0445 27.043
88 1 0.772534 4.46303 62.6487
89 1 6.15192 58.3023 2.21545
90 1 50.558 69.5167 68.6555
91 1 59.7455 0.34437 15.1028
92 1 33.204 1.41888 47.3985
93 1 54.9561 10.8932 56.8481
94 1 64.8568 20.9267 20.3782
95 1 30.0821 20.634 32.4048
96 1 45.8323 0.4657 44.86
97 1 43.7768 35.4851 38.0465
98 1 10.4142 36.9622 35.2488
99 1 63.1692 15.09 20.941
100 1 37.6526 8.15133 36.562
101 1 65.3851 30.7601 74.6705
102 1 61.9515 71.366 53.9323
103 1 3.40414 51.3811 31.3244
104 1 38.2972 33.5057 36.8418
105 1 58.7865 16.8751 54.2513
106 1 16.2453 27.2054 28.6056
107 1 20.6881 13.5736 6.54336
108 1 17.1962 68.7251 35.6356
109 1 62.8048 26.243 48.3452
110 1 74.6241 35.0485 9.30315
111 1 29.4805 33.1136 37.7959
112 1 9.77862 72.8351 72.4117
113 1 36.6027 26.6262 17.3387
114 1 56.4427 66.9412 37.7676
115 1 45.7591 30.4505 17.9416
116 1 30.4585 47.3954 41.2709
117 1 55.1996 71.1727 15.9546
118 1 26.9585 31.8539 65.0622
119 1 28.3825 50.6089 46.344
120 1 66.1018 43.5052 11.5972
121 1 48.3942 33.3549 46.6905
122 1 43.2347 40.104 57.684
123 1 74.2135 13.1012 47.2582
124 1 52.6952 59.462 33.2702
125 1 12.4982 67.2243 7.86176
126 1 46.1676 27.6831 34.9819
127 1 34.0936 27.372 51.5936
128 1 29.0575 10.0434 9.88018
129 1 50.4854 52.8597 73.0364
130 1 46.1425 23.9606 55.9507
131 1 16.8622 70.0909 57.9195
132 1 22.5771 51.7005 52.0772
133 1 31.6481 21.187 34.1673
134 1 67.3104 35.0088 33.6112
135 1 67.9742 20.5569 52.468
136 1 56.3446 28.1509 65.6415
137 1 16.3203 42.8293 3.81544
138 1 7.55551 8.36861 26.2371
139 1 17.9664 38.8073 72.6269
140 1 56.9086 37.3921 10.9255
141 1 50.6515 23.7079 50.1936
142 1 31.3251 61.8768 35.0975
143 1 67.1971 74.242 19.3438
144 1 11.8533 7.69462 46.6101
145 1 33.3433 30.409 22.8533
146 1 18.71 63.1482 49.7969
147 1 47.7898 38.2745 53.9566
148 1 27.5867 58.5464 62.706
149 1 28.7065 62.597 28.9007
150 1 15.5529 45.5822 23.5933
151 1 36.9216 33.4667 11.3181
152 1 31.5439 53.8205 30.7112
153 1 19.4768 44.3519 35.6048
154 1 31.1108 65.7625 12.8996
155 1 25.394 37.5129 21.9523
156 1 30.9374 13.8328 15.6527
157 1 16.8023 7.24991 27.7436
158 1 6.79245 66.0393 51.7433
159 1 29.3649 25.2502 26.3784
160 1 18.2759 26.5257 0.205248
161 1 21.779 73.9107 52.3313
162 1 51.363 49.6827 59.2724
163 1 54.022 39.9996 39.0968
164 1 49.8868 61.4131 44.543
165 1 2.2218 54.0838 6.48142
166 1 12.5586 5.28457 6.24771
167 1 55.1828 9.57564 30.6096
168 1 2.64393 20.6647 51.1108
169 1 36.0962 24.2284 61.1107
170 1 63.7395 44.6627 22.8237
171 1 6.03457 27.0276 3.13509
172 1 63.8627 6.22311 7.49624
173 1 58.5483 37.2535 68.4709
174 1 50.1621 7.75178 61.6067
175 1 62.1612 45.6119 39.3165
176 1 56.0019 46.5436 57.325
177 1 58.6653 70.6928 18.9917
178 1 36.3451 40.1125 9.83505
179 1 56.5879 31.4208 57.4721
180 1 42.632 38.2533 48.0887
181 1 52.4425 70.5837 42.776
182 1 60.5245 58.848 28.3508
183 1 41.54 0.510214 24.4183
184 1 10.2734 0.402478 8.87501
185 1 59.7905 13.8931 31.9963
186 1 42.2626 71.2225 72.0119
187 1 2.15229 37.5307 70.3679
188 1 24.5725 63.8831 6.63296
189 1 10.7026 45.2679 15.5049
190 1 66.317 8.53219 67.498
191 1 18.3852 57.5513 49.4743
192 1 46.7266 30.0741 24.7082
193 1 23.5404 46.3779 72.6778
194 1 1.19855 25.601 8.73244
195 1 26.5991 51.155 44.9816
196 1 59.6246 69.6348 9.44976
197 1 5.80148 57.7248 45.8512
198 1 31.5671 39.7903 61.7461
199 1 63.4981 36.9784 30.2089
200 1 18.6293 55.8034 1.52667
201 1 65.3893 30.712 18.2066
202 1 67.0194 16.6976 12.6618
203 1 55.7433 36.1722 74.1681
204 1 61.26 42.7805 66.8682
205 1 68.1411 72.1768 21.2554
206 1 65.152 50.4223 46.9071
207 1 18.9985 23.383 61.2187
208 1 11.4959 11.7864 65.0991
209 1 12.0831 44.3483 59.9836
210 1 45.0291 53.8575 56.1224
211 1 40.2897 71.7184 57.8408
212 1 40.8484 4.3362 33.029
213 1 46.1283 32.0111 3.0404
214 1 69.2854 62.8906 30.7857
215 1 46.6294 8.53223 49.5455
216 1 58.8385 25.3587 48.3546
217 1 42.545 37.7572 45.7781
218 1 11.868 69.012 11.7494
219 1 24.7468 1.52777 41.365
220 1 33.1984 40.9059 59.949
221 1 32.7824 33.9618 35.3084
222 1 67.4713 2.26109 30.7084
223 1 36.5348 42.7927 40.7517
224 1 8.46652 57.944 57.5084
225 1 54.7203 72.3572 2.74247
226 1 14.1834 26.6124 7.45325
227 1 70.4902 35.6005 36.2436
228 1 52.1292 11.9314 7.84864
229 1 39.1584 50.6999 19.1254
230 1 24.9382 22.6004 32.0402
231 1 23.1512 57.1444 27.6704
232 1 54.2359 47.2068 30.9982
233 1 30.2553 11.3785 43.261
234 1 52.1891 11.0948 38.5425
235 1 0.377531 38.5912 31.3952
236 1 27.5467 31.3253 43.7898
237 1 7.75521 72.7916 41.3216
238 1 42.5616 73.9296 56.1089
239 1 51.6866 19.8651 49.9954
240 1 15.2624 71.6074 9.80656
241 1 40.448 30.1021 57.3106
242 1 13.7784 51.7446 54.7312
243 1 4.31567 51.9974 45.1617
244 1 4.36662 29.7808 42.4316
245 1 67.7585 45.6009 49.2555
246 1 72.1576 1.02509 60.5872
247 1 71.9026 47.7926 20.0897
248 1 12.7022 35.1414 34.3119
249 1 38.899 31.3987 14.698
250 1 74.175 52.0782 6.10893
251 1 48.1149 71.8186 4.33811
252 1 52.3411 18.9501 54.3021
253 1 72.5685 29.326 38.5103
254 1 45.9737 13.3706 17.1881
255 1 25.4013 47.2898 64.6595
256 1 37.4516 74.2176 5.68903
257 1 10.8089 33.2189 0.424254
258 1 56.0738 56.7501 56.3882
259 1 59.1816 12.5361 72.5354
260 1 65.8126 62.8891 72.9979
261 1 56.0869 38.098 33.1886
262 1 1.8602 4.59879 6.64823
263 1 22.479 70.773 70.1331
264 1 11.7988 65.7776 30.0657
265 1 68.0582 18.7574 37.4765
266 1 28.8576 17.6659 45.1489
267 1 32.6684 62.5502 71.1364
268 1 31.283 61.8893 39.7342
269 1 12.8046 20.8464 49.5577
270 1 63.9147 66.9484 2.33985
271 1 1.553 47.9574 20.4803
272 1 6.06002 27.2803 41.9809
273 1 48.1186 0.31061 64.8043
274 1 29.102 43.7632 34.1306
275 1 42.6608 21.189 50.038
276 1 24.3809 0.787712 51.8954
277 1 21.4647 49.2059 47.0842
278 1 33.8592 16.646 31.393
279 1 67.068 24.2698 32.1641
280 1 62.0641 6.96514 39.7351
281 1 8.52681 28.6295 15.7313
282 1 30.8639 32.6991 23.1816
283 1 29.9113 9.63802 18.3486
284 1 23.5036 65.0918 18.8446
285 1 49.5547 74.5332 31.8789
286 1 6.80068 19.0588 74.5212
287 1 15.5025 25.5261 34.3543
288 1 9.5535 51.3907 1.077
289 1 20.2833 44.5026 43.3989
290 1 16.9084 43.3359 31.8314
291 1 53.7693 46.0382 40.7453
292 1 51.5035 25.7497 22.487
293 1 49.4984 16.3344 43.2027
294 1 33.7118 22.0711 32.1405
295 1 36.7447 25.6682 57.7881
296 1 11.5562 64.848 0.623093
297 1 53.7046 21.4183 44.7541
298 1 39.9262 10.3687 57.5342
299 1 38.6258 5.26937 33.5601
300 1 59.9056 43.2526 62.2807
301 1 4.9009 49.9803 69.9846
302 1 68.3949 23.5267 9.0397
303 1 33.6096 29.3817 55.9482
304 1 8.17803 54.1394 18.9933
305 1 24.4006 58.5214 21.4046
306 1 60.1887 0.944615 3.7552
307 1 45.1672 1.1681 72.3525
308 1 7.70081 62.5131 8.68406
309 1 27.5339 46.6615 64.857
310 1 32.1267 9.07592 63.0807
311 1 66.9875 21.6959 34.4223
312 1 30.5329 69.7688 40.7748
313 1 52.4363 30.5979 26.2632
314 1 55.9272 49.1503 41.2564
315 1 63.458 60.6958 45.289
316 1 30.5216 24.7116 65.9446
317 1 59.099 73.9832 7.87692
318 1 54.4451 52.783 60.7432
319 1 37.7389 10.0826 66.377
320 1 67.2793 73.5147 29.5629
321 1 52.9306 20.7262 15.8689
322 1 72.147 29.3679 50.4092
323 1 46.9375 54.6545 26.7156
324 1 38.7561 32.3574 1.77137
325 1 56.0283 54.5268 54.952
326 1 63.0192 30.3612 51.2534
327 1 11.5454 22.2127 47.7591
328 1 69.9047 35.2908 52.0663
329 1 65.9357 9.72593 12.6377
330 1 72.0154 64.2725 56.699
331 1 46.1515 35.6955 0.205421
332 1 35.4486 20.2413 28.8682
333 1 5.87104 15.8839 46.0629
334 1 21.5809 60.9241 55.3389
335 1 47.1251 43.8262 30.0988
336 1 35.8041 45.1752 54.1051
337 1 65.6548 42.6958 18.9246
338 1 58.2153 2.13016 39.9454
339 1 26.2901 73.8148 49.7526
340 1 40.7163 46.5777 19.3936
341 1 9.42906 31.0082 15.2726
342 1 8.33359 6.5351 35.2183
343 1 26.8745 49.1874 43.9853
344 1 69.9408 28.5035 5.67919
345 1 69.784 31.7564 24.2776
346 1 32.8498 51.3096 69.1433
347 1 54.527 63.6711 46.331
348 1 33.93 70.8476 10.4091
349 1 0.654947 64.5637 33.0702
350 1 54.9846 7.16078 5.92728
351 1 65.2256 47.867 29.8109
352 1 40.7797 50.1877 23.442
353 1 10.7016 7.30752 9.4608
354 1 11.0881 18.9336 71.9447
355 1 70.3775 20.1475 51.0389
356 1 33.9891 29.4874 35.6791
357 1 57.9678 10.1346 12.3196
358 1 24.7156 57.9882 68.8124
359 1 24.6627 45.147 2.86108
360 1 64.0143 3.79895 45.2045
361 1 36.0072 28.3347 16.298
362 1 42.7526 23.4741 0.00323198
363 1 31.5107 58.6607 72.7865
364 1 72.4863 59.6252 2.28622
365 1 67.5448 6.57191 55.6351
366 1 10.6599 4.62703 60.5648
367 1 5.51447 3.69533 49.7127
368 1 25.7806 24.6307 42.4547
369 1 32.806 50.9928 35.041
370 1 40.3681 38.6349 67.5111
371 1 29.4007 21.1687 42.4859
372 1 10.2019 41.4849 69.2809
373 1 29.2997 60.5902 59.2141
374 1 61.2675 60.9681 27.0924
375 1 18.5986 62.5118 26.9531
376 1 32.5239 69.4745 20.9306
377 1 57.645 45.467 7.67797
378 1 55.7295 66.1517 30.7784
379 1 66.0213 35.1476 44.3311
380 1 46.9118 46.0762 19.4608
381 1 45.0561 4.74698 13.6245
382 1 72.5706 31.6347 48.9747
383 1 9.8966 18.0433 15.0869
384 1 22.599 46.467 70.6201
385 1 9.95169 10.1153 71.1959
386 1 13.2556 40.4214 30.9174
387 1 59.8948 19.8837 30.5331
388 1 64.2512 18.8948 43.4385
389 1 31.2822 56.7459 35.0165
390 1 64.0528 51.669 44.3602
391 1 7.00217 13.0734 40.106
392 1 19.9566 40.5004 54.6849
393 1 24.8202 66.6669 20.8144
394 1 37.5245 1.59981 74.2889
395 1 2.09378 26.082 6.89016
396 1 9.28332 73.4301 52.6546
397 1 39.6178 68.2971 19.8822
398 1 25.0977 69.3186 47.6819
399 1 48.0805 74.3084 8.96803
400 1 1.01398 54.4923 38.4081
401 1 52.7143 68.6752 29.4065
402 1 55.9524 42.6358 13.5498
403 1 70.5742 36.3847 44.8726
404 1 55.204 68.1139 73.4289
405 1 1.18118 74.7622 51.3473
406 1 0.360124 73.6325 53.1777
407 1 53.9533 53.2397 4.86861
408 1 42.403 13.5364 59.7408
409 1 30.2773 14.9449 62.6274
410 1 34.5403 49.5857 8.86071
411 1 37.2472 74.818 73.7328
412 1 35.4636 1.2368 37.7286
413 1 46.1695 42.7314 31.8831
414 1 65.3251 72.3063 51.4029
415 1 46.9302 46.8179 28.6527
416 1 57.3052 12.0624 15.4078
417 1 59.0323 68.4837 1.18991
418 1 31.9671 26.1005 52.4205
419 1 37.597 14.9988 29.327
420 1 67.87 72.7765 18.1235
421 1 34.5065 45.8915 47.4409
422 1 28.594 22.8422 4.24891
423 1 3.92889 56.9265 66.9198
424 1 63.0366 64.2522 2.22244
425 1 28.7475 68.0959 30.6085
426 1 57.3985 10.5437 41.7037
427 1 45.7697 46.1817 48.6704
428 1 11.0782 8.00357 64.9484
429 1 62.8794 49.4672 32.1254
430 1 0.161005 18.3901 25.0451
431 1 70.5501 10.8352 39.9478
432 1 7.10496 43.9647 0.916769
433 1 46.3802 71.0472 42.7953
434 1 66.2166 58.276 4.74019
435 1 50.9728 5.49838 37.9606
436 1 38.8929 43.2814 17.1079
437 1 63.8553 3.21692 62.4186
438 1 18.3096 57.0885 26.1298
439 1 67.19 48.3328 62.695
440 1 28.6123 48.1544 32.5883
441 1 53.7971 71.5518 50.5465
442 1 28.6715 55.9338 9.6375
443 1 63.5414 0.104714 12.5554
444 1 55.6576 6.62047 46.6217
445 1 6.63316 72.5831 30.6707
446 1 62.2054 73.502 4.19025
447 1 14.5267 56.6028 56.9541
448 1 30.5571 41.5946 69.2665
449 1 10.029 19.4959 65.9477
450 1 34.4216 33.2216 41.5151
451 1 68.6222 25.7791 42.8854
452 1 54.806 29.3278 10.5649
453 1 36.9351 73.4587 43.8083
454 1 42.3369 37.2786 18.316
455 1 13.7559 16.8653 46.124
456 1 39.1364 20.3674 49.054
457 1 55.921 44.3734 12.5255
458 1 24.6122 54.2595 63.6268
459 1 43.5061 4.92997 35.9309
460 1 55.6032 2.23926 22.9098
461 1 31.163 27.8131 15.5308
462 1 25.0793 64.481 37.1984
463 1 8.23317 44.6646 19.2942
464 1 14.1943 43.9384 37.7451
465 1 43.6934 5.92577 30.2658
466 1 73.5779 17.0151 29.3196
467 1 47.5503 63.1706 66.1918
468 1 45.8135 72.8561 48.3347
469 1 32.988 20.1104 52.2441
470 1 60.1738 11.848 5.07233
471 1 27.1934 53.7572 21.021
472 1 21.4965 55.8296 28.7507
473 1 16.4194 54.0221 70.4762
474 1 43.1553 19.8137 23.4116
475 1 45.6661 41.3482 14.4767
476 1 25.3343 62.4791 39.1034
477 1 63.6981 0.416945 70.0595
478 1 11.3185 32.7299 25.2405
479 1 58.0088 53.1789 25.3175
480 1 22.3341 27.4949 50.747
481 1 4.02836 6.27603 19.8806
482 1 35.0203 5.9604 18.1184
483 1 31.9951 35.4546 63.5369
484 1 68.4553 69.5574 26.8843
485 1 39.429 2.13679 57.2745
486 1 10.4999 41.8777 32.2702
487 1 46.1614 16.9336 18.8895
488 1 3.76641 14.9322 7.33307
489 1 60.8687 37.6573 11.3399
490 1 72.0024 25.7004 6.10792
491 1 10.9117 40.8179 46.6976
492 1 51.5776 45.5662 31.6046
493 1 60.2559 50.49 21.5451
494 1 13.3991 36.1478 26.5677
495 1 1.60466 15.7142 62.2378
496 1 61.3191 12.7639 68.162
497 1 53.4444 61.9538 49.2373
498 1 67.8809 12.1555 40.8862
499 1 41.16 42.6941 16.4177
500 1 25.8267 14.3512 29.5013
501 1 1.02156 61.4673 35.8077
502 1 55.3626 58.5507 27.6997
503 1 5.06499 11.7141 16.2034
504 1 67.1402 49.2768 10.2278
505 1 9.42633 43.6502 10.5005
506 1 46.2104 69.9414 57.1887
507 1 0.823671 7.69765 53.7906
508 1 58.1398 68.2456 3.18126
509 1 61.4405 69.2833 18.422
510 1 27.98 19.3524 7.95716
511 1 4.06156 74.4272 69.5264
512 1 25.143 12.0676 54.3085
513 1 22.6223 14.1146 8.62306
514 1 67.6814 28.0343 2.43172
515 1 31.1368 12.9748 72.2806
516 1 41.048 67.744 10.4149
517 1 61.2676 30.303 28.8387
518 1 29.4961 37.0257 71.2834
519 1 67.5878 44.6214 70.0552
520 1 17.0297 73.0865 2.36882
521 1 31.9489 43.368 43.0524
522 1 64.5285 60.592 42.1818
523 1 16.7255 4.17607 7.21563
524 1 61.6471 47.9694 52.7439
525 1 16.689 19.1138 73.553
526 1 46.003 36.3631 16.4577
527 1 36.1503 16.6805 69.2917
528 1 68.7132 40.0314 57.6655
529 1 66.207 40.7792 67.2759
530 1 23.3327 52.2533 35.9533
531 1 45.933 74.4618 42.3866
532 1 33.024 53.3269 61.6634
533 1 42.2802 57.2417 59.7733
534 1 13.8023 15.5945 0.372364
535 1 36.9534 56.3812 21.5655
536 1 29.5179 55.6286 67.3616
537 1 28.1814 60.099 47.8217
538 1 30.6825 14.9701 39.9808
539 1 30.551 13.5732 27.7621
540 1 59.148 61.6806 27.0678
541 1 28.961 29.7204 39.1084
542 1 17.0584 35.1306 56.4583
543 1 50.5721 54.7235 45.867
544 1 54.1094 33.7265 16.4257
545 1 69.7304 69.7622 64.0096
546 1 29.9563 12.3217 29.2209
547 1 0.942598 10.6184 43.8768
548 1 32.9778 53.9978 24.1925
549 1 61.0485 70.5271 20.241
550 1 69.5218 4.01568 61.3141
551 1 47.7432 27.2426 20.6742
552 1 73.6982 63.0236 55.6172
553 1 17.6263 59.9441 16.1975
554 1 39.4395 73.6136 62.7079
555 1 28.7829 9.75411 60.0956
556 1 11.996 0.481442 15.6584
557 1 66.1982 35.8573 58.9177
558 1 68.3164 7.32968 50.0119
559 1 13.5428 27.137 45.9935
560 1 57.9015 37.1753 57.534
561 1 20.66 71.8058 70.9467
562 1 37.2772 25.2986 44.6252
563 1 61.8563 55.6587 8.76732
564 1 72.3132 31.6863 52.6551
565 1 60.751 36.8379 20.2744
566 1 16.9348 39.8659 55.3867
567 1 11.8006 59.0114 28.4176
568 1 15.4388 69.2496 28.3241
569 1 71.2185 22.3825 31.539
570 1 34.6954 73.9855 10.2406
571 1 49.3075 12.9635 40.4125
572 1 41.0327 52.2962 30.1835
573 1 3.80431 29.7692 57.9572
574 1 33.8042 73.4465 3.5262
575 1 8.34053 10.2669 30.7229
576 1 15.9916 56.7423 40.2527
577 1 59.9534 24.2988 40.1693
578 1 34.8309 28.5041 19.2952
579 1 66.3545 30.4061 15.1989
580 1 22.4227 18.1844 18.1697
581 1 65.434 66.4684 38.3623
582 1 51.3733 28.0403 69.6256
583 1 12.1541 0.581448 4.39389
584 1 6.96769 2.8467 37.2415
585 1 39.1224 62.2497 58.5375
586 1 45.4414 5.65044 56.4929
587 1 47.6462 60.5058 47.5617
588 1 18.915 45.1851 72.8904
589 1 18.3663 13.4744 50.7422
590 1 66.8258 9.177 14.4997
591 1 4.83368 15.7429 48.1246
592 1 63.5913 71.8939 56.6092
593 1 18.3146 25.0092 33.7501
594 1 23.2813 25.5268 59.0531
595 1 52.9662 0.28055 4.47512
596 1 54.473 24.158 11.3432
597 1 51.5899 36.6928 33.599
598 1 7.79054 39.1979 56.1662
599 1 69.7624 69.1944 66.6501
600 1 29.3683 74.6348 54.0275
601 1 7.46383 11.2826 20.0915
602 1 62.0293 66.9825 39.8024
603 1 35.865 5.52709 73.0232
604 1 25.8993 5.12554 32.3289
605 1 16.6505 47.8755 28.4377
606 1 33.8695 8.49274 64.2473
607 1 48.5299 62.1873 11.6997
608 1 18.3732 8.53691 28.5228
609 1 72.4193 51.0712 51.1623
610 1 25.5332 2.39038 43.8131
611 1 72.5091 23.3715 33.0932
612 1 36.2577 48.3462 41.0114
613 1 0.520401 20.5768 23.499
614 1 14.5854 45.1166 47.6166
615 1 41.0754 39.3134 49.0992
616 1 19.3728 27.5257 74.0182
617 1 45.6013 13.4333 58.2178
618 1 20.2327 18.6545 30.1459
619 1 17.1485 14.5854 40.9174
620 1 10.64 21.0736 22.2453
621 1 22.0637 6.14954 74.4741
622 1 16.4883 70.0693 8.98437
623 1 67.1272 11.0839 27.4906
624 1 46.4301 23.7361 61.6555
625 1 30.1471 69.7395 7.76742
626 1 58.311 69.2336 21.9595
627 1 30.8078 26.4489 17.6381
628 1 21.9591 46.6469 0.483304
629 1 28.9109 38.3213 19.1605
630 1 35.758 29.8137 60.477
631 1 37.2378 50.5064 47.7497
632 1 64.9555 17.9482 37.2512
633 1 51.5251 23.2769 29.7871
634 1 17.8411 66.9777 56.338
635 1 11.3326 13.7069 8.93332
636 1 30.3003 71.6361 13.0713
637 1 30.2458 0.293658 5.43419
638 1 27.7005 18.5294 18.3839
639 1 63.2721 61.0212 17.7143
640 1 48.5459 52.6626 17.9691
641 1 4.8355 5.50378 62.3101
642 1 9.56882 40.1634 63.8898
643 1 1.31259 12.3525 70.3139
644 1 51.3476 37.1269 23.8384
645 1 7.94536 33.7675 57.3371
646 1 2.04393 74.7086 64.5244
647 1 18.1945 36.1324 67.1623
648 1 45.4554 2.64848 26.2532
649 1 59.7887 5.72654 54.0794
650 1 74.7413 3.37122 72.9363
651 1 38.5855 70.8613 44.5253
652 1 27.98 18.3297 48.9174
653 1 62.6076 38.0047 23.7268
654 1 13.7734 33.7374 56.0141
655 1 45.3509 67.3398 57.1631
656 1 64.4685 66.1026 16.469
657 1 42.0929 6.49557 69.7713
658 1 58.3376 17.813 52.3937
659 1 37.5413 0.0603748 65.8509
660 1 22.496 25.3451 56.3089
661 1 41.57 30.6778 59.0571
662 1 56.637 17.8835 29.2216
663 1 70.7321 68.5424 55.6835
664 1 68.1684 30.4679 41.9823
665 1 49.5983 45.9028 61.5332
666 1 37.9758 18.7885 73.3818
667 1 6.06358 66.853 16.7813
668 1 29.5429 1.17398 66.7988
669 1 52.8613 33.5497 4.65554
670 1 30.3582 26.857 51.392
671 1 17.8794 26.5247 45.4449
672 1 73.9408 70.6283 39.2903
673 1 37.8084 54.9313 17.0899
674 1 17.7553 37.0481 22.9886
675 1 58.9924 53.5536 43.1437
676 1 49.5857 34.415 38.6698
677 1 51.8332 65.3199 34.6214
678 1 15.62 73.8436 51.0357
679 1 68.2198 0.454892 6.7752
680 1 57.126 11.4298 43.6901
681 1 41.7999 31.2914 4.3531
682 1 71.7577 54.2103 60.7428
683 1 50.7727 12.0165 56.343
684 1 8.2632 34.5181 1.06502
685 1 34.2716 39.2774 45.438
686 1 17.6686 66.6508 48.1085
687 1 35.3991 10.7529 20.4783
688 1 29.4549 27.5143 56.1616
689 1 63.6981 35.8604 69.1002
690 1 6.87862 5.31729 27.6484
691 1 69.2107 16.5153 25.4998
692 1 24.4821 6.28403 48.6269
693 1 39.0564 50.615 32.4418
694 1 17.4582 25.3827 56.5908
695 1 14.5664 46.949 61.4288
696 1 19.907 31.0452 27.0712
697 1 20.7296 11.4154 6.53551
698 1 59.8296 6.88472 38.026
699 1 4.6141 21.9834 4.25879
700 1 28.7482 61.7172 21.7207
701 1 35.2687 22.5089 29.0287
702 1 59.1102 5.83539 0.97265
703 1 46.6237 7.18061 43.8631
704 1 8.99799 18.0621 70.4635
705 1 34.0178 31.7131 35.4879
706 1 40.6706 53.7899 64.0531
707 1 14.751 21.907 37.5748
708 1 69.5811 33.7506 3.89095
709 1 26.9693 35.0285 45.8
710 1 60.7911 1.98641 29.3401
711 1 54.868 69.1746 56.0482
712 1 39.8905 51.4709 70.5129
713 1 54.4601 33.6278 38.7591
714 1 70.4039 17.1494 34.1318
715 1 41.8245 60.1094 51.7195
716 1 47.2957 19.9897 18.7423
717 1 7.76822 11.8617 58.7524
718 1 49.5189 58.6613 57.2311
719 1 70.5193 31.9254 2.56971
720 1 27.3865 50.6531 8.40337
721 1 20.6367 68.0837 8.27809
722 1 12.6373 27.2347 26.669
723 1 46.5421 8.19011 41.7229
724 1 29.9002 20.0086 22.165
725 1 19.1201 64.471 8.05516
726 1 14.9531 8.89781 11.9172
727 1 36.9824 46.4135 49.0552
728 1 19.0339 54.6629 67.158
729 1 11.4124 42.9459 34.2274
730 1 62.8504 67.9202 15.5344
731 1 15.9416 58.379 62.6324
732 1 62.4967 30.1655 49.1161
733 1 23.8888 0.0578601 58.6496
734 1 4.84113 65.5226 40.5121
735 1 7.4806 19.578 48.1492
736 1 21.3874 9.20579 70.2796
737 1 26.7596 45.7916 69.5901
738 1 66.5084 34.6101 64.5093
739 1 34.1677 24.1685 57.6721
740 1 15.6612 35.7676 63.6319
741 1 20.4152 62.2195 27.9137
742 1 53.8252 0.403238 60.0615
743 1 0.839488 34.5075 6.00752
744 1 35.7843 30.7653 14.7604
745 1 42.4282 22.5677 61.8161
746 1 49.2208 14.1675 32.9917
747 1 3.35047 47.9385 46.6406
748 1 21.4713 22.1378 40.4647
749 1 67.2819 54.0891 54.123
750 1 35.9758 72.1478 11.8153
751 1 60.3745 67.1079 17.9583
752 1 49.4209 51.275 63.267
753 1 50.3886 61.2925 3.0314
754 1 61.0923 52.8511 20.5687
755 1 57.2799 24.0164 63.1592
756 1 22.0543 42.0537 16.8845
757 1 25.5122 22.9423 21.9879
758 1 26.8836 74.5885 41.8708
759 1 14.3761 5.92876 60.9409
760 1 7.27599 59.9647 71.0955
761 1 66.4204 73.9992 64.7955
762 1 54.9204 10.1896 2.49018
763 1 61.2747 12.5435 73.3358
764 1 53.8139 14.4538 26.6616
765 1 64.3149 25.0817 25.5304
766 1 26.5707 4.69574 4.11827
767 1 69.2358 8.00557 67.5227
768 1 59.6985 41.397 60.1222
769 1 65.9603 53.588 0.80137
770 1 22.0401 50.5698 1.91955
771 1 66.3682 55.4827 51.778
772 1 61.706 42.4728 40.3172
773 1 32.6657 36.7199 26.2774
774 1 45.0041 25.0367 70.3953
775 1 12.4399 5.05534 18.942
776 1 62.9029 55.6123 23.3043
777 1 34.8399 64.7996 66.5207
778 1 65.5059 47.9868 7.33074
779 1 43.3172 55.8413 2.15188
780 1 18.1076 45.7624 14.4142
781 1 46.8151 44.1954 22.5294
782 1 33.4371 45.4156 3.83907
783 1 52.9999 5.17643 17.2982
784 1 46.1501 59.7964 41.9215
785 1 5.87886 23.0754 2.87377
786 1 9.52417 34.9064 25.7638
787 1 17.2074 37.5373 5.44778
788 1 73.5665 55.7921 1.33274
789 1 20.1656 37.7029 67.8037
790 1 30.7684 68.371 0.984091
791 1 54.9567 60.3725 19.2096
792 1 63.2641 26.2777 2.76428
793 1 5.0919 74.142 33.6109
794 1 26.5872 39.4928 8.01846
795 1 73.7449 45.4013 66.4252
796 1 61.0034 46.8521 28.4715
797 1 48.5528 32.8041 29.5158
798 1 49.6982 55.3583 55.6672
799 1 0.557659 54.6773 3.36065
800 1 5.30341 51.7492 43.2123
801 1 63.6264 1.47816 21.9507
802 1 34.6437 25.5046 55.934
803 1 56.3263 72.7095 58.6943
804 1 72.3003 41.3305 59.6044
805 1 52.764 12.4646 26.7163
806 1 30.2398 50.182 61.1904
807 1 12.81 26.6861 71.3674
808 1 6.95263 42.5351 58.6123
809 1 29.2794 16.4902 63.8869
810 1 67.7207 57.6551 51.7286
811 1 20.6368 11.8639 73.7701
812 1 49.7812 42.1743 45.4774
813 1 1.60965 44.8397 45.2052
814 1 27.8295 9.15305 51.7972
815 1 18.2372 9.51147 69.7044
816 1 30.1031 70.0467 5.60522
817 1 63.628 22.524 20.0399
818 1 5.74243 32.0649 60.4249
819 1 70.6865 69.1744 16.7924
820 1 46.7723 26.0346 41.9743
821 1 53.5999 27.7971 20.5034
822 1 4.60753 46.0873 24.2279
823 1 8.61532 3.29097 43.4881
824 1 12.2957 47.0535 9.56967
825 1 64.8921 60.1124 31.3704
826 1 58.3818 36.9966 15.7421
827 1 65.5793 41.1002 30.3172
828 1 74.4591 36.6637 58.0523
829 1 16.1467 37.6198 12.2455
830 1 54.8334 32.8426 41.2668
831 1 51.3792 4.69142 3.86498
832 1 21.171 12.0959 32.3445
833 1 42.7956 44.7581 60.7459
834 1 26.641 21.8899 27.4395
835 1 17.0928 21.9942 53.7263
836 1 42.8095 26.9333 12.2924
837 1 44.1177 18.1512 63.154
838 1 62.345 25.5727 39.1693
839 1 20.9835 38.2554 5.91345
840 1 61.4643 69.5492 43.1276
841 1 65.7235 59.5798 24.3446
842 1 18.1563 8.69148 33.7943
843 1 55.4462 54.4616 40.6989
844 1 27.2796 22.551 16.9937
845 1 67.1414 4.95611 31.5303
846 1 34.0261 61.2073 27.9295
847 1 60.9392 57.3773 43.0453
848 1 5.23646 8.49189 67.2927
849 1 19.1334 36.4992 24.8273
850 1 28.2725 59.3899 60.7847
851 1 42.1222 73.7278 47.4647
852 1 4.76053 34.6354 19.5691
853 1 9.07475 20.1946 4.74993
854 1 62.2052 29.2667 45.6243
855 1 28.539 12.9154 70.7844
856 1 50.0443 3.40761 32.6536
857 1 50.8949 14.6387 74.7935
858 1 56.9558 24.5976 35.4878
859 1 47.5115 21.2712 70.9468
860 1 52.9269 13.5458 34.3306
861 1 10.3807 61.2626 11.5478
862 1 28.7891 71.1876 8.7711
863 1 56.4019 41.4243 63.6681
864 1 22.2001 10.7668 30.1994
865 1 7.96786 1.68868 66.699
866 1 21.7935 39.1291 22.9531
867 1 9.09824 58.1273 20.062
868 1 27.3069 24.3027 38.2614
869 1 28.6897 18.2457 23.1963
870 1 18.9741 0.560186 64.6384
871 1 58.3601 28.348 40.6944
872 1 74.0334 32.2567 26.3243
873 1 34.2901 9.86108 65.7937
874 1 43.9033 36.5096 49.7522
875 1 63.2819 32.9158 56.513
876 1 25.1892 13.186 16.6343
877 1 13.8891 18.1519 17.9093
878 1 9.41731 15.6688 17.6816
879 1 41.9414 2.91399 58.3617
880 1 68.3748 51.1534 50.941
881 1 31.398 37.0144 33.1887
882 1 28.525 5.58023 0.162979
883 1 71.2853 22.7236 69.2393
884 1 31.4002 59.8218 74.7493
885 1 61.8423 17.3424 6.76524
886 1 19.831 65.8398 6.03096
887 1 17.2699 31.1654 31.589
888 1 58.2695 47.7281 72.3827
889 1 55.7497 35.4809 5.03477
890 1 70.7565 71.2636 16.7678
891 1 34.2244 41.499 12.7981
892 1 41.1205 0.666443 70.1956
893 1 10.0624 24.6938 37.9551
894 1 47.1356 58.0179 15.5194
895 1 65.2482 65.9195 71.0138
896 1 5.55814 34.1742 14.9584
897 1 35.5213 38.9294 2.89478
898 1 61.945 26.6955 44.7931
899 1 33.3325 32.2182 43.5544
900 1 45.707 6.69045 12.8635
901 1 55.0781 73.9106 27.8481
902 1 69.1176 12.5828 66.1999
903 1 15.5515 38.4986 58.5048
904 1 28.9638 11.8891 18.9916
905 1 39.4232 20.1548 62.0857
906 1 34.5478 27.1398 25.2804
907 1 8.65204 1.89995 52.839
908 1 26.6743 64.4531 60.0995
909 1 70.787 69.4204 74.4994
910 1 17.3619 15.0064 29.4162
911 1 22.1472 0.468741 26.2727
912 1 73.7583 64.9451 40.3156
913 1 35.225 59.0093 25.4059
914 1 26.4364 55.6322 25.1575
915 1 26.0068 66.2664 62.9808
916 1 47.6 35.8339 68.9526
917 1 36.3157 65.7021 54.0955
918 1 39.9317 14.9057 38.3861
919 1 63.1296 38.2743 38.5566
920 1 44.5572 15.4314 63.4902
921 1 34.7604 37.6965 13.4254
922 1 5.80726 64.1854 24.6054
923 1 51.9723 73.035 42.0521
924 1 55.2819 65.2672 20.8944
925 1 28.2576 56.6486 73.108
926 1 33.1192 6.49552 36.0135
927 1 45.7632 37.2494 71.2099
928 1 4.39391 0.797391 60.4726
929 1 30.5048 31.1968 48.6321
930 1 11.3659 71.356 27.6886
931 1 65.9519 71.3944 66.6013
932 1 12.8677 3.28781 37.1688
933 1 38.459 53.833 68.79
934 1 46.9713 56.1094 14.5146
935 1 32.6617 17.7134 71.4446
936 1 21.709 54.1631 37.7267
937 1 3.07567 27.2196 24.6933
938 1 2.78532 33.9026 73.9403
939 1 57.9154 63.7774 24.1298
940 1 23.4629 6.17504 70.6395
941 1 15.6506 14.9657 74.0031
942 1 46.289 7.17296 15.3371
943 1 64.7967 36.0672 26.277
944 1 15.0226 29.517 11.228
945 1 63.1697 16.1692 14.3471
946 1 39.0909 48.8333 31.4471
947 1 4.77933 74.7007 26.007
948 1 22.7976 27.4242 73.8794
949 1 27.9518 53.9001 70.8882
950 1 1.63546 45.7635 67.3629
951 1 24.1902 31.5674 36.9893
952 1 26.8943 41.9256 49.0643
953 1 60.5256 63.2411 12.0119
954 1 31.9644 0.792798 62.9749
955 1 48.7322 59.0976 10.8217
956 1 51.9112 58.9701 18.8211
957 1 60.3844 54.7002 58.5992
958 1 4.41525 46.4805 66.5068
959 1 38.462 68.639 60.2739
960 1 24.0395 39.5229 48.8254
961 1 27.3498 36.4146 1.26586
962 1 12.9366 55.2285 43.5922
963 1 40.7761 37.2522 58.1581
964 1 12.3406 28.2959 52.4298
965 1 29.8419 51.9446 16.7011
966 1 69.0095 50.2221 58.1711
967 1 30.4923 49.5548 18.036
968 1 26.3746 40.7091 50.7531
969 1 7.67029 66.1622 55.1135
970 1 66.9334 57.98 35.3547
971 1 51.051 47.4373 2.93264
972 1 68.8313 40.5608 59.7526
973 1 41.8104 35.3654 35.2277
974 1 6.83251 34.8454 44.1305
975 1 62.0135 0.536471 64.1271
976 1 4.98351 62.1729 66.0503
977 1 25.4698 49.5946 25.2203
978 1 18.6268 59.5957 38.8808
979 1 44.9614 69.9952 11.848
980 1 68.2488 42.2661 28.9599
981 1 38.2915 26.4085 51.116
982 1 31.1127 33.3969 9.17653
983 1 4.51684 59.7564 28.6979
984 1 34.9274 67.4975 5.9194
985 1 46.7981 44.3652 59.0356
986 1 39.8475 18.3368 71.2025
987 1 21.4389 26.49 19.6104
988 1 27.7266 40.973 57.6896
989 1 57.5334 31.1134 36.1357
990 1 25.5843 0.243408 66.4452
991 1 48.7992 15.0297 40.9234
992 1 30.4571 66.5577 36.0228
993 1 16.0503 13.4316 49.4843
994 1 1.98894 63.4968 1.03681
995 1 33.6399 3.4927 39.5597
996 1 60.1137 23.0861 28.113
997 1 34.8397 3.87243 72.0615
998 1 22.9844 12.5897 54.1866
999 1 51.5731 68.5906 58.4979
ITEM: TIMESTEP
499
ITEM: NUMBER OF ATOMS
1000
ITEM: BOX BOUNDS pp pp pp
0 74.822
0 74.822
0 74.822
ITEM: ATOMS id type x y z
0 1 70.5948 15.4117 62.9434
1 1 72.6999 0.7027 31.77
2 1 22.752 7.53942 37.3295
3 1 21.8751 21.0658 22.4385
4 1 61.1936 26.1058 66.8742